/*--------------------------------*- C++ -*----------------------------------*\
  =========                 |
  \\      /  F ield         | OpenFOAM: The Open Source CFD Toolbox
   \\    /   O peration     | Website:  https://openfoam.org
    \\  /    A nd           | Version:  7
     \\/     M anipulation  |
\*---------------------------------------------------------------------------*/
FoamFile
{
    version     2.0;
    format      ascii;
    class       pointScalarField;
    location    "0";
    object      motionScale;
}
// * * * * * * * * * * * * * * * * * * * * * * * * * * * * * * * * * * * * * //

dimensions      [0 0 0 0 0 0 0];

internalField   nonuniform List<scalar> 
44284
(
0
0
0
0
0
0
0
0
0
0
0
0
0
0
0
0
0
0
0
0
0
0
0
0
0
0
0
0
0
0
0
0
0
0
0
0
0
0
0
0
0
0
0
0
0
0
0
0
0
0
0
0
0
0
0
0
0
0
0
0
0
0
0
0
0
0
0
0
0
0
0
0
0
0
0
0
0
0
0
0
0
0
0
0
0
0
0
0
0
0
0
0
0
0
0
0
0
0
0
0
0
0
0
0
0
0
0
0
0
0
0
0
0
0
0
0
0
0
0
0
0
0
0
0
0
0
0
0
0
0
0
0
0
0
0
0
0
0
0
0
0
0
0
0
0
0
0
0
0
0
0
0
0
0
0
0
0
0
0
0
0
0
0
0
0
0
0
0
0
0
0
0
0
0
0
0
0
0
0
0
0
0
0
0
0
0
0
0
0
0
0
0
0
0
0
0
0
0
0
0
0
0
0
0
0
0
0
0
0
0
0
0
0
0
0
0
0
0
0
0
0
0
0
0
0
0
0
0
0
0
0
0
0
0
0
0
0
0
0
0
0
0
0
0
0
0
0
0
0
0
0
0
0
0
0
0
0
0
0
0
0
0
0
0
0
0
0
0
0
0
0
0
0
0
0
0
0
0
0
0
0
0
0
0
0
0
0
0
0
0
0
0
0
0
0
0
0
0
0
0
0
0
0
0
0
0
0
0
0
0
0
0
0
0
0
0
0
0
0
0
0
0
0
0
0
0
0
0
0
0
0
0
0
0
0
0
0
0
0
0
0
0
0
0
0
0
0
0
0
0
0
0
0
0
0
0
0
0
0
0
0
0
0
0
0
0
0
0
0
0
0
0
0
0
0
0
0
0
0
0
0
0
0
0
0
0
0
0
0
0
0
0
0
0
0
0
0
0
0
0
0
0
0
0
0
0
0
0
0
0
0
0
0
0
0
0
0
0
0
0
0
0
0
0
0
0
0
0
0
0
0
0
0
0
0
0
0
0
0
0
0
0
0
0
0
0
0
0
0
0
0
0
0
0
0
0
0
0
0
0
0
0
0
0
0
0
0
0
0
0
0
0
0
0
0
0
0
0
0
0
0
0
0
0
0
0
0
0
0
1.9650972e-06
1.6294871e-05
2.9244372e-05
0
0
0
0
0
0
0
0
0
0
0
0
0
0
0
0
0
0
0
0
0
0
0
0
0
0
0
0
0
0
0
7.2802424e-07
0.00015311567
0.00051507636
0.0010108043
0.0015718399
0.0021378561
0.0026573467
0.0030882096
0.0033982225
0.0035654054
0
0
0
0
0
0
0
0
0
0
0
0
0
0
0
0
0
0
0
0
0
0
0
0
0
0
0
0
0.00010579544
0.00066149374
0.001600333
0.0028203297
0.004224651
0.0057227068
0.0072311616
0.0086748568
0.009987637
0.011113073
0.012005072
0.01262838
0.012958957
0
0
0
0
0
0
0
0
0
0
0
0
0
0
0
0
0
0
0
0
0
0
0
0
0
4.171983e-05
0.00066061358
0.0019250111
0.0037131116
0.0059051101
0.0083845387
0.011039554
0.01376416
0.016459353
0.019034187
0.021406735
0.023504957
0.025267457
0.026644118
0.027596627
0.028098869
0
0
0
0
0
0
0
0
0
0
0
0
0
0
0
0
0
0
0
0
0
0
0
0.00015185779
0.0011705886
0.0030349212
0.0056107139
0.0087633992
0.012359472
0.016267942
0.020361747
0.0245191
0.028624774
0.032571298
0.036260068
0.039602358
0.042520218
0.044947266
0.04682935
0.04812509
0.048806291
0
0
0
0
0
0
0
0
0
0
0
0
0
0
0
0
0
0
0
0
0
0.0001266779
0.0012753484
0.0035074488
0.0066810328
0.010650941
0.015270392
0.02039257
0.025872186
0.031567005
0.03733932
0.043057369
0.04859667
0.053841274
0.058684917
0.063032078
0.066798905
0.069914041
0.072319308
0.073970269
0.074836658
0
0
0
0
0
0
0
0
0
0
0
0
0
0
0
0
0
0
0
1.0686051e-05
0.00091070354
0.0031611089
0.0066176052
0.011129612
0.016541915
0.022696331
0.029433386
0.036593978
0.044021011
0.051560997
0.059065591
0.066393073
0.073409734
0.079991181
0.086023533
0.091404514
0.096044414
0.099866942
0.10280993
0.10482592
0.10997416
0
0
0
0
0
0
0
0
0
0
0
0
0
0
0
0
0
0
0.00031263964
0.0021277852
0.0054379989
0.010093295
0.015935803
0.022801464
0.030521764
0.038925488
0.047840473
0.057095348
0.066521249
0.07595348
0.085233122
0.094208566
0.10273695
0.11068553
0.11793289
0.12437008
0.12990161
0.13444634
0.13793818
0.14467912
0.14619835
0
0
0
0
0
0
0
0
0
0
0
0
0
0
0
0
0
0.00084468326
0.0034827613
0.0077741129
0.013564742
0.020691062
0.028981625
0.038258909
0.048341135
0.059044102
0.070183023
0.081574339
0.093037509
0.10439674
0.11548264
0.12613385
0.1361985
0.14553559
0.15401632
0.16152521
0.16796111
0.17323812
0.17728632
0.18483915
0.18659321
0
0
0
0
0
0
0
0
0
0
0
0
0
0
0
2.7518277e-05
0.0013949753
0.0047287699
0.0098858285
0.016710026
0.025033851
0.034680158
0.045463984
0.057194422
0.069676518
0.082713195
0.096107165
0.10966282
0.12318809
0.13649624
0.14940761
0.16175124
0.17336642
0.18410414
0.19382836
0.20241725
0.20976416
0.21577859
0.22518445
0.22869148
0.23068168
0
0
0
0
0
0
0
0
0
0
0
0
0
0
8.1327632e-05
0.001805584
0.0056740552
0.011545447
0.019263569
0.028658983
0.039550751
0.051748273
0.065053195
0.079261359
0.094164792
0.10955371
0.12521849
0.14095169
0.15654991
0.17181571
0.18655935
0.20060054
0.21376998
0.22591084
0.23688014
0.24654987
0.25480814
0.26156001
0.27179278
0.27571715
0.27794315
0
0
0
0
0
0
0
0
0
0
0
0
0
9.365502e-05
0.0019769165
0.0061872092
0.01258727
0.021023067
0.031325412
0.043311687
0.056787679
0.071549504
0.087385592
0.10407873
0.12140815
0.13915156
0.15708727
0.17499623
0.19266399
0.20988265
0.22645272
0.24218485
0.25690143
0.27043816
0.28264534
0.29338913
0.30255261
0.31485118
0.32102167
0.3253598
0.32781955
0
0
0
0
0
0
0
0
0
0
0
0
5.2129758e-05
0.0018704977
0.0062007407
0.012911986
0.021854721
0.03286234
0.045752836
0.060330609
0.076388383
0.093709211
0.11206855
0.1312364
0.15097942
0.17106314
0.19125407
0.21132185
0.23104129
0.25019439
0.26857222
0.28597672
0.30222235
0.31713765
0.33056661
0.34236986
0.35242577
0.36553396
0.37228704
0.37703229
0.37972198
0
0
0
0
0
0
0
0
0
0
0
2.7555057e-06
0.0015100401
0.0057129022
0.012489294
0.021696681
0.033173508
0.046740821
0.062204037
0.079354829
0.097973129
0.11782921
0.13868586
0.16030057
0.18242779
0.20482115
0.22723573
0.2494302
0.27116902
0.29222444
0.31237848
0.33142478
0.34917028
0.36543678
0.38006236
0.39290253
0.40383136
0.41765926
0.42498108
0.43012362
0.43303764
0
0
0
0
0
0
0
0
0
0
0
0.00098078429
0.0047877367
0.011358697
0.020560637
0.032239608
0.046222283
0.062317648
0.080318843
0.10000513
0.12114398
0.14349323
0.16680333
0.19081963
0.21528472
0.23994073
0.26453167
0.28880567
0.31251719
0.33542919
0.35731508
0.37796063
0.39716574
0.41474595
0.43053388
0.44438043
0.45615581
0.47060732
0.47847942
0.48400617
0.48713709
0
0
0
0
0
0
0
0
0
0
0.00042712375
0.0035533451
0.0096284651
0.018531513
0.030118768
0.044225183
0.060665989
0.079238457
0.099723814
0.12188929
0.14549026
0.17027252
0.19597458
0.22233007
0.24907012
0.27592577
0.30263037
0.32892193
0.3545454
0.37925486
0.40281559
0.42500602
0.44561948
0.4644658
0.48137272
0.49618704
0.51291909
0.52374937
0.53214861
0.53804319
0.54138165
0
0
0
0
0
0
0
0
0
4.856066e-05
0.0021984074
0.0074727755
0.015765292
0.026945094
0.040858122
0.057328602
0.076160713
0.097140419
0.12003745
0.14460743
0.17059409
0.19773161
0.22574702
0.25436265
0.28329862
0.31227533
0.34101593
0.36924877
0.39670974
0.42314453
0.4483108
0.47198015
0.4939399
0.51399478
0.53196824
0.54770366
0.56497549
0.57645522
0.58535368
0.59159628
0.59513099
0
0
0
0
0
0
0
0
0
0.00096702728
0.0051270983
0.012484993
0.02292531
0.036307684
0.052468126
0.07122057
0.092358593
0.11565732
0.14087545
0.1677575
0.19603602
0.22543409
0.25566772
0.28644844
0.31748583
0.34849014
0.37917478
0.40925891
0.43846983
0.46654535
0.49323601
0.51830712
0.54154061
0.56273671
0.58171529
0.59831702
0.61601356
0.628101
0.6374658
0.64403305
0.64775069
0
0
0
0
0
0
0
0
0.00015200552
0.0028819042
0.0089748861
0.018333539
0.030833854
0.046326406
0.064637752
0.085572021
0.1089127
0.13442459
0.16185592
0.19094059
0.22140055
0.25294828
0.28528932
0.31812491
0.35115462
0.38407899
0.41660221
0.44843473
0.47929572
0.50891561
0.53703831
0.56342338
0.58784798
0.61010848
0.63002194
0.64742715
0.66542974
0.67807676
0.68786985
0.69473467
0.6986197
0
0
0
0
0
0
0
0
0.0010748289
0.0055730563
0.013504338
0.02476359
0.039218669
0.056711599
0.077060006
0.10005877
0.12548185
0.15308432
0.18260449
0.21376627
0.24628157
0.27985287
0.3141758
0.34894185
0.38384111
0.41856496
0.45280883
0.48627491
0.51867474
0.54973178
0.57918381
0.60678515
0.63230872
0.65554775
0.67631725
0.69445505
0.71264237
0.72579421
0.73597206
0.74310324
0.74713776
0
0
0
0
0
0
0
8.1451796e-05
0.0026624551
0.0088241025
0.01848266
0.03152587
0.047813984
0.067181032
0.0894363
0.11436602
0.14173527
0.17128999
0.20275925
0.2358576
0.27028756
0.30574221
0.34190791
0.37846697
0.41510056
0.45149141
0.4873267
0.5223008
0.55611804
0.58849532
0.61916469
0.64787566
0.6743974
0.69852062
0.72005906
0.73885059
0.75475783
0.77069431
0.78120737
0.78856916
0.79490245
0
0
0
0
0
0
0
0.00066063219
0.0047210244
0.012425903
0.023685333
0.038380429
0.056364422
0.077463963
0.10148064
0.1281927
0.15735701
0.18871109
0.22197546
0.25685601
0.29304655
0.33023145
0.36808842
0.40629127
0.44451278
0.4824276
0.51971513
0.55606237
0.59116681
0.62473913
0.65650592
0.6862122
0.71362376
0.73852924
0.7607418
0.78010038
0.79647024
0.81225504
0.82304688
0.83059809
0.83677204
0
0
0
0
0
0
0
0.0016537919
0.0070660961
0.016179879
0.02889956
0.045100223
0.064628714
0.087304969
0.11292357
0.14125552
0.17205017
0.20503742
0.23992995
0.27642577
0.3142107
0.35296117
0.39234691
0.43203388
0.47168714
0.51097379
0.54956595
0.58714369
0.62339796
0.65803348
0.69077156
0.72135284
0.74953984
0.77511934
0.79790439
0.81773584
0.83448305
0.84999923
0.86100532
0.86869793
0.87465807
0
0
0
0
0
0
9.9281586e-05
0.0029016661
0.0095256361
0.019901123
0.033927501
0.051474467
0.072383161
0.096467526
0.12351589
0.15329275
0.18554078
0.21998302
0.25632516
0.29425811
0.33346054
0.37360166
0.41434405
0.45534651
0.49626704
0.53676582
0.57650819
0.61516771
0.65242912
0.68799133
0.72157042
0.75290252
0.78174668
0.80788762
0.83113825
0.85134174
0.86837282
0.88350324
0.89464889
0.90242571
0.90811587
0
0
0
0
0
0
0.00044349463
0.004258796
0.01194277
0.023421262
0.038589241
0.057311704
0.079424811
0.10473727
0.13303195
0.16406767
0.19758128
0.23328979
0.27089279
0.31007494
0.35050863
0.39185674
0.43377546
0.47591725
0.51793378
0.55947896
0.60021196
0.63980028
0.67792276
0.71427266
0.74856072
0.78051827
0.80990031
0.83648872
0.86009542
0.8805654
0.89777919
0.91165403
0.92360448
0.93139501
0.93675496
0
0
0
0
0
0
0.00092158987
0.0055959138
0.014178268
0.026591037
0.042725466
0.06244257
0.085574298
0.11192493
0.14127271
0.17337166
0.20795367
0.24473065
0.28339701
0.32363209
0.36510293
0.40746696
0.45037492
0.49347377
0.53640968
0.57883105
0.62039154
0.66075314
0.69958921
0.73658755
0.7714535
0.80391313
0.83371651
0.86064129
0.88449648
0.90512675
0.9224169
0.93629574
0.94757218
0.95528541
0.96024572
0
0
0
0
0
0
0.001430937
0.0068020429
0.016112726
0.029282571
0.046199803
0.066722215
0.090678344
0.11786889
0.14806833
0.18102682
0.21647221
0.2541123
0.29363723
0.33472207
0.38163805
0.42479608
0.46842551
0.51216916
0.55566947
0.59857152
0.64052608
0.68119262
0.72024237
0.7573613
0.79225327
0.82285792
0.85297328
0.88013192
0.90413706
0.92482881
0.94209099
0.95585972
0.96613244
0.97385814
0.97832883
0
0
0
0
0
0
0.001887397
0.0077862866
0.017648431
0.031391294
0.048900816
0.070032353
0.094611862
0.12243732
0.15328039
0.18688825
0.22298573
0.26615798
0.30649088
0.34832704
0.3913246
0.43513247
0.47939317
0.52374582
0.56782912
0.61128432
0.65375824
0.69490629
0.73439539
0.77190696
0.80713985
0.83981334
0.8696703
0.89648065
0.92004559
0.93956547
0.95671414
0.97026586
0.98022833
0.98699229
0.99083833
0
0
0
0
0
4.8143972e-06
0.0022267187
0.0084792826
0.018710864
0.032837506
0.050743621
0.072282932
0.097279667
0.12552999
0.16129281
0.19567097
0.23249647
0.27146932
0.31227211
0.35457266
0.39802665
0.4422805
0.4869742
0.53174428
0.5762268
0.62006027
0.66288869
0.70436449
0.74415138
0.78192723
0.81738688
0.85024481
0.880238
0.90712874
0.93070799
0.95079971
0.96726781
0.98002957
0.98913019
0.99503827
0.99799348
0
0
0
0
0
1.6023226e-05
0.0024056012
0.0088343085
0.019249853
0.033567572
0.051671114
0.073413391
0.1025855
0.13149965
0.1634025
0.19803485
0.23511533
0.27434271
0.31539833
0.35794868
0.40164814
0.44614176
0.49106817
0.53606249
0.58075931
0.62479567
0.66781399
0.70946501
0.74941063
0.78952694
0.82489155
0.8576117
0.88742286
0.91408476
0.93738384
0.95713597
0.9731902
0.98529339
0.99391334
0.99866346
1
0
0
0
0
0
0
0
0
0
0
0
0
0
0
0
0
0
0
0
0
0
0
0
0
0
0
0
0
0
0
0
0
0
0
0
0
0
0
0
0
0
0
0
0
0
0
0
0
0
0
0
0
0
0
0
0
0
0
0
0
0
0
0
0
0
0
0
0
0
0
0
0
0
0
0
0
0
0
0
0
0
0
0
0
0
0
0
0
0
0
0
0
0
0
0
0
0
0
0
0
0
0
0
0
0
0
0
0
0
0
0
0
0
0
0
0
0
0
0
0
0
0
0
0
0
0
0
0
0
0
0
0
0
0
0
0
0
0
0
0
0
0
0
0
0
0
0
0
0
0
0
0
0
0
0
0
0
0
0
0
0
0
0
0
0
0
0
0
0
0
0
0
0
0
0
0
0
0
0
0
0
0
0
0
0
0
0
0
0
0
0
0
0
0
0
0
0
0
0
0
0
0
0
0
0
0
0
0
0
0
0
0
0
0
0
0
0
0
0
0
0
0
0
0
0
0
0
0
0
0
0
0
0
0
0
0
0
0
0
0
0
0
0
0
0
0
0
0
0
0
0
0
0
0
0
0
0
0
0
0
0
0
0
0
0
0
0
0
0
0
0
0
0
0
0
0
0
0
0
0
0
0
0
0
0
0
0
0
0
0
0
0
0
0
0
0
0
0
0
0
0
0
0
0
0
0
0
0
0
0
0
0
0
0
0
0
0
0
0
0
0
0
0
0
0
0
0
0
0
0
0
0
0
0
0
0
0
0
0
0
0
0
0
0
0
0
0
0
0
0
0
0
0
0
0
0
0
0
0
0
0
0
0
0
0
0
0
0
0
0
0
0
0
0
0
0
0
0
0
0
0
0
0
0
0
0
0
0
0
0
0
0
0
0
0
0
0
0
0
0
0
0
0
0
0
0
0
0
0
0
0
0
0
0
0
0
0
0
0
0
0
0
0
0
0
0
0
0
0
0
0
0
0
0
0
0
0
0
0
0
0
0
0
0
0
0
0
0
0
0
0
0
0
0
0
0
0
0
0
0
0
0
0
0
0
0
0
0
0
0
0
0
0
0
0
0
0
0
0
0
0
0
0
0
0
0
0
0
0
1.9650972e-06
1.6294871e-05
2.9244372e-05
0
0
0
0
0
0
0
0
0
0
0
0
0
0
0
0
0
0
0
0
0
0
0
0
0
0
0
0
0
0
0
7.2802424e-07
0.00015311567
0.00051507636
0.0010108043
0.0015718399
0.0021378561
0.0026573467
0.0030882096
0.0033982225
0.0035654054
0
0
0
0
0
0
0
0
0
0
0
0
0
0
0
0
0
0
0
0
0
0
0
0
0
0
0
0
0.00010579544
0.00066149374
0.001600333
0.0028203297
0.004224651
0.0057227068
0.0072311616
0.0086748568
0.009987637
0.011113073
0.012005072
0.01262838
0.012958957
0
0
0
0
0
0
0
0
0
0
0
0
0
0
0
0
0
0
0
0
0
0
0
0
0
4.171983e-05
0.00066061358
0.0019250111
0.0037131116
0.0059051101
0.0083845387
0.011039554
0.01376416
0.016459353
0.019034187
0.021406735
0.023504957
0.025267457
0.026644118
0.027596627
0.028098869
0
0
0
0
0
0
0
0
0
0
0
0
0
0
0
0
0
0
0
0
0
0
0
0.00015185779
0.0011705886
0.0030349212
0.0056107139
0.0087633992
0.012359472
0.016267942
0.020361747
0.0245191
0.028624774
0.032571298
0.036260068
0.039602358
0.042520218
0.044947266
0.04682935
0.04812509
0.048806291
0
0
0
0
0
0
0
0
0
0
0
0
0
0
0
0
0
0
0
0
0
0.0001266779
0.0012753484
0.0035074488
0.0066810328
0.010650941
0.015270392
0.02039257
0.025872186
0.031567005
0.03733932
0.043057369
0.04859667
0.053841274
0.058684917
0.063032078
0.066798905
0.069914041
0.072319308
0.073970269
0.074836658
0
0
0
0
0
0
0
0
0
0
0
0
0
0
0
0
0
0
0
1.0686051e-05
0.00091070354
0.0031611089
0.0066176052
0.011129612
0.016541915
0.022696331
0.029433386
0.036593978
0.044021011
0.051560997
0.059065591
0.066393073
0.073409734
0.079991181
0.086023533
0.091404514
0.096044414
0.099866942
0.10280993
0.10482592
0.10997416
0
0
0
0
0
0
0
0
0
0
0
0
0
0
0
0
0
0
0.00031263964
0.0021277852
0.0054379989
0.010093295
0.015935803
0.022801464
0.030521764
0.038925488
0.047840473
0.057095348
0.066521249
0.07595348
0.085233122
0.094208566
0.10273695
0.11068553
0.11793289
0.12437008
0.12990161
0.13444634
0.13793818
0.14467912
0.14619835
0
0
0
0
0
0
0
0
0
0
0
0
0
0
0
0
0
0.00084468326
0.0034827613
0.0077741129
0.013564742
0.020691062
0.028981625
0.038258909
0.048341135
0.059044102
0.070183023
0.081574339
0.093037509
0.10439674
0.11548264
0.12613385
0.1361985
0.14553559
0.15401632
0.16152521
0.16796111
0.17323812
0.17728632
0.18483915
0.18659321
0
0
0
0
0
0
0
0
0
0
0
0
0
0
0
2.7518277e-05
0.0013949753
0.0047287699
0.0098858285
0.016710026
0.025033851
0.034680158
0.045463984
0.057194422
0.069676518
0.082713195
0.096107165
0.10966282
0.12318809
0.13649624
0.14940761
0.16175124
0.17336642
0.18410414
0.19382836
0.20241725
0.20976416
0.21577859
0.22518445
0.22869148
0.23068168
0
0
0
0
0
0
0
0
0
0
0
0
0
0
8.1327632e-05
0.001805584
0.0056740552
0.011545447
0.019263569
0.028658983
0.039550751
0.051748273
0.065053195
0.079261359
0.094164792
0.10955371
0.12521849
0.14095169
0.15654991
0.17181571
0.18655935
0.20060054
0.21376998
0.22591084
0.23688014
0.24654987
0.25480814
0.26156001
0.27179278
0.27571715
0.27794315
0
0
0
0
0
0
0
0
0
0
0
0
0
9.365502e-05
0.0019769165
0.0061872092
0.01258727
0.021023067
0.031325412
0.043311687
0.056787679
0.071549504
0.087385592
0.10407873
0.12140815
0.13915156
0.15708727
0.17499623
0.19266399
0.20988265
0.22645272
0.24218485
0.25690143
0.27043816
0.28264534
0.29338913
0.30255261
0.31485118
0.32102167
0.3253598
0.32781955
0
0
0
0
0
0
0
0
0
0
0
0
5.2129758e-05
0.0018704977
0.0062007407
0.012911986
0.021854721
0.03286234
0.045752836
0.060330609
0.076388383
0.093709211
0.11206855
0.1312364
0.15097942
0.17106314
0.19125407
0.21132185
0.23104129
0.25019439
0.26857222
0.28597672
0.30222235
0.31713765
0.33056661
0.34236986
0.35242577
0.36553396
0.37228704
0.37703229
0.37972198
0
0
0
0
0
0
0
0
0
0
0
2.7555057e-06
0.0015100401
0.0057129022
0.012489294
0.021696681
0.033173508
0.046740821
0.062204037
0.079354829
0.097973129
0.11782921
0.13868586
0.16030057
0.18242779
0.20482115
0.22723573
0.2494302
0.27116902
0.29222444
0.31237848
0.33142478
0.34917028
0.36543678
0.38006236
0.39290253
0.40383136
0.41765926
0.42498108
0.43012362
0.43303764
0
0
0
0
0
0
0
0
0
0
0
0.00098078429
0.0047877367
0.011358697
0.020560637
0.032239608
0.046222283
0.062317648
0.080318843
0.10000513
0.12114398
0.14349323
0.16680333
0.19081963
0.21528472
0.23994073
0.26453167
0.28880567
0.31251719
0.33542919
0.35731508
0.37796063
0.39716574
0.41474595
0.43053388
0.44438043
0.45615581
0.47060732
0.47847942
0.48400617
0.48713709
0
0
0
0
0
0
0
0
0
0
0.00042712375
0.0035533451
0.0096284651
0.018531513
0.030118768
0.044225183
0.060665989
0.079238457
0.099723814
0.12188929
0.14549026
0.17027252
0.19597458
0.22233007
0.24907012
0.27592577
0.30263037
0.32892193
0.3545454
0.37925486
0.40281559
0.42500602
0.44561948
0.4644658
0.48137272
0.49618704
0.51291909
0.52374937
0.53214861
0.53804319
0.54138165
0
0
0
0
0
0
0
0
0
4.856066e-05
0.0021984074
0.0074727755
0.015765292
0.026945094
0.040858122
0.057328602
0.076160713
0.097140419
0.12003745
0.14460743
0.17059409
0.19773161
0.22574702
0.25436265
0.28329862
0.31227533
0.34101593
0.36924877
0.39670974
0.42314453
0.4483108
0.47198015
0.4939399
0.51399478
0.53196824
0.54770366
0.56497549
0.57645522
0.58535368
0.59159628
0.59513099
0
0
0
0
0
0
0
0
0
0.00096702728
0.0051270983
0.012484993
0.02292531
0.036307684
0.052468126
0.07122057
0.092358593
0.11565732
0.14087545
0.1677575
0.19603602
0.22543409
0.25566772
0.28644844
0.31748583
0.34849014
0.37917478
0.40925891
0.43846983
0.46654535
0.49323601
0.51830712
0.54154061
0.56273671
0.58171529
0.59831702
0.61601356
0.628101
0.6374658
0.64403305
0.64775069
0
0
0
0
0
0
0
0
0.00015200552
0.0028819042
0.0089748861
0.018333539
0.030833854
0.046326406
0.064637752
0.085572021
0.1089127
0.13442459
0.16185592
0.19094059
0.22140055
0.25294828
0.28528932
0.31812491
0.35115462
0.38407899
0.41660221
0.44843473
0.47929572
0.50891561
0.53703831
0.56342338
0.58784798
0.61010848
0.63002194
0.64742715
0.66542974
0.67807676
0.68786985
0.69473467
0.6986197
0
0
0
0
0
0
0
0
0.0010748289
0.0055730563
0.013504338
0.02476359
0.039218669
0.056711599
0.077060006
0.10005877
0.12548185
0.15308432
0.18260449
0.21376627
0.24628157
0.27985287
0.3141758
0.34894185
0.38384111
0.41856496
0.45280883
0.48627491
0.51867474
0.54973178
0.57918381
0.60678515
0.63230872
0.65554775
0.67631725
0.69445505
0.71264237
0.72579421
0.73597206
0.74310324
0.74713776
0
0
0
0
0
0
0
8.1451796e-05
0.0026624551
0.0088241025
0.01848266
0.03152587
0.047813984
0.067181032
0.0894363
0.11436602
0.14173527
0.17128999
0.20275925
0.2358576
0.27028756
0.30574221
0.34190791
0.37846697
0.41510056
0.45149141
0.4873267
0.5223008
0.55611804
0.58849532
0.61916469
0.64787566
0.6743974
0.69852062
0.72005906
0.73885059
0.75475783
0.77069431
0.78120737
0.78856916
0.79490245
0
0
0
0
0
0
0
0.00066063219
0.0047210244
0.012425903
0.023685333
0.038380429
0.056364422
0.077463963
0.10148064
0.1281927
0.15735701
0.18871109
0.22197546
0.25685601
0.29304655
0.33023145
0.36808842
0.40629127
0.44451278
0.4824276
0.51971513
0.55606237
0.59116681
0.62473913
0.65650592
0.6862122
0.71362376
0.73852924
0.7607418
0.78010038
0.79647024
0.81225504
0.82304688
0.83059809
0.83677204
0
0
0
0
0
0
0
0.0016537919
0.0070660961
0.016179879
0.02889956
0.045100223
0.064628714
0.087304969
0.11292357
0.14125552
0.17205017
0.20503742
0.23992995
0.27642577
0.3142107
0.35296117
0.39234691
0.43203388
0.47168714
0.51097379
0.54956595
0.58714369
0.62339796
0.65803348
0.69077156
0.72135284
0.74953984
0.77511934
0.79790439
0.81773584
0.83448305
0.84999923
0.86100532
0.86869793
0.87465807
0
0
0
0
0
0
9.9281586e-05
0.0029016661
0.0095256361
0.019901123
0.033927501
0.051474467
0.072383161
0.096467526
0.12351589
0.15329275
0.18554078
0.21998302
0.25632516
0.29425811
0.33346054
0.37360166
0.41434405
0.45534651
0.49626704
0.53676582
0.57650819
0.61516771
0.65242912
0.68799133
0.72157042
0.75290252
0.78174668
0.80788762
0.83113825
0.85134174
0.86837282
0.88350324
0.89464889
0.90242571
0.90811587
0
0
0
0
0
0
0.00044349463
0.004258796
0.01194277
0.023421262
0.038589241
0.057311704
0.079424811
0.10473727
0.13303195
0.16406767
0.19758128
0.23328979
0.27089279
0.31007494
0.35050863
0.39185674
0.43377546
0.47591725
0.51793378
0.55947896
0.60021196
0.63980028
0.67792276
0.71427266
0.74856072
0.78051827
0.80990031
0.83648872
0.86009542
0.8805654
0.89777919
0.91165403
0.92360448
0.93139501
0.93675496
0
0
0
0
0
0
0.00092158987
0.0055959138
0.014178268
0.026591037
0.042725466
0.06244257
0.085574298
0.11192493
0.14127271
0.17337166
0.20795367
0.24473065
0.28339701
0.32363209
0.36510293
0.40746696
0.45037492
0.49347377
0.53640968
0.57883105
0.62039154
0.66075314
0.69958921
0.73658755
0.7714535
0.80391313
0.83371651
0.86064129
0.88449648
0.90512675
0.9224169
0.93629574
0.94757218
0.95528541
0.96024572
0
0
0
0
0
0
0.001430937
0.0068020429
0.016112726
0.029282571
0.046199803
0.066722215
0.090678344
0.11786889
0.14806833
0.18102682
0.21647221
0.2541123
0.29363723
0.33472207
0.38163805
0.42479608
0.46842551
0.51216916
0.55566947
0.59857152
0.64052608
0.68119262
0.72024237
0.7573613
0.79225327
0.82285792
0.85297328
0.88013192
0.90413706
0.92482881
0.94209099
0.95585972
0.96613244
0.97385814
0.97832883
0
0
0
0
0
0
0.001887397
0.0077862866
0.017648431
0.031391294
0.048900816
0.070032353
0.094611862
0.12243732
0.15328039
0.18688825
0.22298573
0.26615798
0.30649088
0.34832704
0.3913246
0.43513247
0.47939317
0.52374582
0.56782912
0.61128432
0.65375824
0.69490629
0.73439539
0.77190696
0.80713985
0.83981334
0.8696703
0.89648065
0.92004559
0.93956547
0.95671414
0.97026586
0.98022833
0.98699229
0.99083833
0
0
0
0
0
4.8143972e-06
0.0022267187
0.0084792826
0.018710864
0.032837506
0.050743621
0.072282932
0.097279667
0.12552999
0.16129281
0.19567097
0.23249647
0.27146932
0.31227211
0.35457266
0.39802665
0.4422805
0.4869742
0.53174428
0.5762268
0.62006027
0.66288869
0.70436449
0.74415138
0.78192723
0.81738688
0.85024481
0.880238
0.90712874
0.93070799
0.95079971
0.96726781
0.98002957
0.98913019
0.99503827
0.99799348
0
0
0
0
0
1.6023226e-05
0.0024056012
0.0088343085
0.019249853
0.033567572
0.051671114
0.073413391
0.1025855
0.13149965
0.1634025
0.19803485
0.23511533
0.27434271
0.31539833
0.35794868
0.40164814
0.44614176
0.49106817
0.53606249
0.58075931
0.62479567
0.66781399
0.70946501
0.74941063
0.78952694
0.82489155
0.8576117
0.88742286
0.91408476
0.93738384
0.95713597
0.9731902
0.98529339
0.99391334
0.99866346
1
0
0
0
0
0
0.00010423589
0.003035672
0.0099746187
0.020865085
0.035619219
0.054117987
0.076212176
0.10172357
0.1304464
0.162149
0.19657564
0.23344867
0.27247068
0.31332695
0.35568795
0.39921205
0.44354817
0.48833876
0.53322257
0.57783762
0.62182408
0.66482724
0.70942278
0.74927176
0.78710803
0.8226266
0.85554125
0.88558685
0.91252164
0.93612929
0.95622094
0.9726374
0.98525228
0.99397895
0.99878033
1
0
0
0
0
0
0.00018147973
0.0033963856
0.010602502
0.021741908
0.036725072
0.055431559
0.077711041
0.10338444
0.13224542
0.16406199
0.19857848
0.23551745
0.274582
0.3154582
0.35781751
0.40131946
0.44561441
0.49034641
0.5351559
0.57968276
0.62356908
0.6664622
0.70801736
0.74790056
0.78579129
0.82138501
0.85439566
0.88455792
0.91162943
0.93539262
0.95565656
0.97225849
0.98506518
0.99397423
0.99891591
1
0
0
0
0
0
0.00018147973
0.0033963856
0.010602502
0.021741908
0.036725072
0.055431559
0.077711041
0.10338444
0.13224542
0.16406199
0.19857848
0.23551745
0.274582
0.3154582
0.35781751
0.40131946
0.44561441
0.49034641
0.5351559
0.57968276
0.62356908
0.6664622
0.70801736
0.74790056
0.78579129
0.82138501
0.85439566
0.88455792
0.91162943
0.93539262
0.95565656
0.97225849
0.98506518
0.99397423
0.99891591
1
0
0
0
0
0
0.00010423589
0.003035672
0.0099746187
0.020865085
0.035619219
0.054117987
0.076212176
0.10172357
0.1304464
0.162149
0.19657564
0.23344867
0.27247068
0.31332695
0.35568795
0.39921205
0.44354817
0.48833876
0.53322257
0.57783762
0.62182408
0.66482724
0.70942278
0.74927176
0.78710803
0.8226266
0.85554125
0.88558685
0.91252164
0.93612929
0.95622094
0.9726374
0.98525228
0.99397895
0.99878033
1
0
0
0
0
0
1.6023226e-05
0.0024056012
0.0088343085
0.019249853
0.033567572
0.051671114
0.073413391
0.1025855
0.13149965
0.1634025
0.19803485
0.23511533
0.27434271
0.31539833
0.35794868
0.40164814
0.44614176
0.49106817
0.53606249
0.58075931
0.62479567
0.66781399
0.70946501
0.74941063
0.78952694
0.82489155
0.8576117
0.88742286
0.91408476
0.93738384
0.95713597
0.9731902
0.98529339
0.99391334
0.99866346
1
0
0
0
0
0
0.00010423589
0.003035672
0.0099746187
0.020865085
0.035619219
0.054117987
0.076212176
0.10172357
0.1304464
0.162149
0.19657564
0.23344867
0.27247068
0.31332695
0.35568795
0.39921205
0.44354817
0.48833876
0.53322257
0.57783762
0.62182408
0.66482724
0.70942278
0.74927176
0.78710803
0.8226266
0.85554125
0.88558685
0.91252164
0.93612929
0.95622094
0.9726374
0.98525228
0.99397895
0.99878033
1
0
0
0
0
0
0.00018147973
0.0033963856
0.010602502
0.021741908
0.036725072
0.055431559
0.077711041
0.10338444
0.13224542
0.16406199
0.19857848
0.23551745
0.274582
0.3154582
0.35781751
0.40131946
0.44561441
0.49034641
0.5351559
0.57968276
0.62356908
0.6664622
0.70801736
0.74790056
0.78579129
0.82138501
0.85439566
0.88455792
0.91162943
0.93539262
0.95565656
0.97225849
0.98506518
0.99397423
0.99891591
1
0
0
0
0
0
0.00018147973
0.0033963856
0.010602502
0.021741908
0.036725072
0.055431559
0.077711041
0.10338444
0.13224542
0.16406199
0.19857848
0.23551745
0.274582
0.3154582
0.35781751
0.40131946
0.44561441
0.49034641
0.5351559
0.57968276
0.62356908
0.6664622
0.70801736
0.74790056
0.78579129
0.82138501
0.85439566
0.88455792
0.91162943
0.93539262
0.95565656
0.97225849
0.98506518
0.99397423
0.99891591
1
0
0
0
0
0
0.00010423589
0.003035672
0.0099746187
0.020865085
0.035619219
0.054117987
0.076212176
0.10172357
0.1304464
0.162149
0.19657564
0.23344867
0.27247068
0.31332695
0.35568795
0.39921205
0.44354817
0.48833876
0.53322257
0.57783762
0.62182408
0.66482724
0.70942278
0.74927176
0.78710803
0.8226266
0.85554125
0.88558685
0.91252164
0.93612929
0.95622094
0.9726374
0.98525228
0.99397895
0.99878033
1
0
0
0
0
0
1.6023226e-05
0.0024056012
0.0088343085
0.019249853
0.033567572
0.051671114
0.073413391
0.1025855
0.13149965
0.1634025
0.19803485
0.23511533
0.27434271
0.31539833
0.35794868
0.40164814
0.44614176
0.49106817
0.53606249
0.58075931
0.62479567
0.66781399
0.70946501
0.74941063
0.78952694
0.82489155
0.8576117
0.88742286
0.91408476
0.93738384
0.95713597
0.9731902
0.98529339
0.99391334
0.99866346
1
0
0
0
0
0
4.8143972e-06
0.0022267187
0.0084792826
0.018710864
0.032837506
0.050743621
0.072282932
0.097279667
0.12552999
0.16129281
0.19567097
0.23249647
0.27146932
0.31227211
0.35457266
0.39802665
0.4422805
0.4869742
0.53174428
0.5762268
0.62006027
0.66288869
0.70436449
0.74415138
0.78192723
0.81738688
0.85024481
0.880238
0.90712874
0.93070799
0.95079971
0.96726781
0.98002957
0.98913019
0.99503827
0.99799348
0
0
0
0
0
0
0.001887397
0.0077862866
0.017648431
0.031391294
0.048900816
0.070032353
0.094611862
0.12243732
0.15328039
0.18688825
0.22298573
0.26615798
0.30649088
0.34832704
0.3913246
0.43513247
0.47939317
0.52374582
0.56782912
0.61128432
0.65375824
0.69490629
0.73439539
0.77190696
0.80713985
0.83981334
0.8696703
0.89648065
0.92004559
0.93956547
0.95671414
0.97026586
0.98022833
0.98699229
0.99083833
0
0
0
0
0
0
0.001430937
0.0068020429
0.016112726
0.029282571
0.046199803
0.066722215
0.090678344
0.11786889
0.14806833
0.18102682
0.21647221
0.2541123
0.29363723
0.33472207
0.38163805
0.42479608
0.46842551
0.51216916
0.55566947
0.59857152
0.64052608
0.68119262
0.72024237
0.7573613
0.79225327
0.82285792
0.85297328
0.88013192
0.90413706
0.92482881
0.94209099
0.95585972
0.96613244
0.97385814
0.97832883
0
0
0
0
0
0
0.00092158987
0.0055959138
0.014178268
0.026591037
0.042725466
0.06244257
0.085574298
0.11192493
0.14127271
0.17337166
0.20795367
0.24473065
0.28339701
0.32363209
0.36510293
0.40746696
0.45037492
0.49347377
0.53640968
0.57883105
0.62039154
0.66075314
0.69958921
0.73658755
0.7714535
0.80391313
0.83371651
0.86064129
0.88449648
0.90512675
0.9224169
0.93629574
0.94757218
0.95528541
0.96024572
0
0
0
0
0
0
0.00044349463
0.004258796
0.01194277
0.023421262
0.038589241
0.057311704
0.079424811
0.10473727
0.13303195
0.16406767
0.19758128
0.23328979
0.27089279
0.31007494
0.35050863
0.39185674
0.43377546
0.47591725
0.51793378
0.55947896
0.60021196
0.63980028
0.67792276
0.71427266
0.74856072
0.78051827
0.80990031
0.83648872
0.86009542
0.8805654
0.89777919
0.91165403
0.92360448
0.93139501
0.93675496
0
0
0
0
0
0
9.9281586e-05
0.0029016661
0.0095256361
0.019901123
0.033927501
0.051474467
0.072383161
0.096467526
0.12351589
0.15329275
0.18554078
0.21998302
0.25632516
0.29425811
0.33346054
0.37360166
0.41434405
0.45534651
0.49626704
0.53676582
0.57650819
0.61516771
0.65242912
0.68799133
0.72157042
0.75290252
0.78174668
0.80788762
0.83113825
0.85134174
0.86837282
0.88350324
0.89464889
0.90242571
0.90811587
0
0
0
0
0
0
0
0.0016537919
0.0070660961
0.016179879
0.02889956
0.045100223
0.064628714
0.087304969
0.11292357
0.14125552
0.17205017
0.20503742
0.23992995
0.27642577
0.3142107
0.35296117
0.39234691
0.43203388
0.47168714
0.51097379
0.54956595
0.58714369
0.62339796
0.65803348
0.69077156
0.72135284
0.74953984
0.77511934
0.79790439
0.81773584
0.83448305
0.84999923
0.86100532
0.86869793
0.87465807
0
0
0
0
0
0
0
0.00066063219
0.0047210244
0.012425903
0.023685333
0.038380429
0.056364422